<?xml version="1.0"?>
<VTKFile type="PolyData" version="0.1" byte_order="LittleEndian" compressor="vtkZLibDataCompressor">
	<PolyData>
		<Piece NumberOfPoints="122" NumberOfVerts="0" NumberOfLines="0" NumberOfStrips="0" NumberOfPolys="241">
			<PointData Normals="Normals">
				<DataArray type="Float32" Name="Normals" NumberOfComponents="3" format="ascii">
				0.739011 -0.611425 0.282882
				0.454458 -0.785139 -0.420744
				0.092759 -0.269543 -0.958511
				0.322190 -0.125363 -0.938338
				-0.271435 0.230431 -0.934465
				-0.465676 0.175423 -0.867394
				-0.121972 -0.013602 -0.992440
				-0.180904 -0.003793 -0.983494
				-0.188712 0.012112 -0.981958
				-0.256734 0.033735 -0.965893
				-0.159366 0.027779 -0.986829
				0.055689 0.045570 -0.997408
				0.180890 0.337372 -0.923829
				0.518056 0.739163 -0.430415
				0.797393 -0.534376 -0.280368
				0.564620 -0.170404 -0.807568
				0.696073 0.014801 -0.717819
				0.343823 0.136572 -0.929050
				0.498369 0.046752 -0.865704
				0.755345 -0.028809 -0.654694
				0.708135 -0.005007 -0.706059
				0.648732 0.017247 -0.760821
				0.371406 0.042785 -0.927484
				-0.008626 0.017308 -0.999813
				-0.009342 0.036534 -0.999289
				-0.074017 0.459501 -0.885088
				0.825323 -0.562009 -0.054663
				0.935750 -0.128250 -0.328519
				0.940913 0.184893 -0.283719
				0.922158 0.083694 -0.377650
				0.952209 0.010722 -0.305258
				0.979756 -0.025479 -0.198569
				0.971918 -0.000040 -0.235320
				0.962109 0.019791 -0.271945
				0.922697 -0.009125 -0.385419
				0.772494 -0.310126 -0.554143
				0.773058 -0.092933 -0.627491
				0.460051 0.769818 -0.442418
				0.786104 -0.615131 0.060448
				0.955708 -0.098335 0.277403
				0.926850 0.277822 0.252515
				0.990686 0.065038 0.119632
				0.952398 0.007110 0.304775
				0.833996 -0.024079 0.551245
				0.955586 0.003574 0.294692
				0.999468 0.020673 0.025226
				0.998963 -0.041389 -0.018962
				0.826287 -0.494442 0.269771
				0.840090 -0.198869 0.504678
				0.606117 0.794206 0.043128
				0.664331 -0.660884 0.349136
				0.614056 -0.043133 0.788083
				0.578972 0.265195 0.771014
				0.742996 0.045000 0.667781
				0.410263 0.010063 0.911912
				0.034149 -0.015007 0.999304
				0.480290 -0.019424 0.876895
				0.865885 -0.034187 0.499074
				0.925684 -0.063780 0.372882
				0.617882 -0.153126 0.771216
				0.402741 0.178587 0.897723
				0.585391 0.802003 0.118782
				0.253293 -0.713246 0.653547
				-0.052480 0.076921 0.995655
				0.180795 0.223407 0.957811
				0.331556 0.004065 0.943427
				-0.122115 0.008505 0.992479
				-0.112888 -0.014298 0.993505
				0.538404 -0.063686 0.840277
				0.707113 -0.152435 0.690474
				0.496790 -0.151017 0.854631
				-0.023355 0.310552 0.950269
				0.211000 0.586738 0.781804
				0.595300 0.797710 0.096317
				-0.068856 -0.656292 0.751359
				-0.586484 0.006758 0.809933
				-0.174025 0.136114 0.975289
				-0.203660 0.002118 0.979039
				-0.781507 0.029749 0.623187
				-0.707980 -0.001342 0.706231
				-0.037046 -0.103376 0.993952
				-0.206794 -0.389958 0.897312
				-0.919628 -0.167587 0.355244
				-0.778041 0.217116 0.589503
				-0.148556 0.572094 0.806622
				0.555447 0.804560 0.210146
				-0.025283 -0.871420 0.489885
				-0.846082 -0.393002 0.360133
				-0.803730 -0.203167 0.559233
				-0.882138 0.246057 0.401608
				-0.948974 0.310776 0.053547
				-0.992789 0.060514 0.103482
				-0.975312 -0.006476 0.220735
				-0.999029 -0.021631 0.038373
				-0.996618 -0.030899 -0.076138
				-0.976307 -0.096599 0.193629
				-0.811578 0.289748 0.507334
				0.284902 0.929916 0.232566
				0.097156 -0.982108 -0.161320
				-0.730573 -0.600137 -0.325730
				-0.788032 -0.412251 -0.457226
				-0.903241 0.423982 -0.066299
				-0.796513 0.470079 0.380253
				-0.966836 0.091757 0.238344
				-0.996048 0.010014 0.088253
				-0.999996 -0.002561 0.000638
				-0.984463 -0.032549 -0.172546
				-0.889831 -0.141755 -0.433712
				-0.757958 0.158971 -0.632636
				0.334174 0.755429 -0.563608
				0.219613 -0.933992 -0.281832
				-0.318856 -0.473248 -0.821199
				-0.183504 -0.275956 -0.943491
				-0.702267 0.372298 -0.606807
				-0.934738 0.339805 0.103908
				-0.986988 0.047323 -0.153676
				-0.961814 0.005678 -0.273643
				-0.920888 0.001359 -0.389825
				-0.749601 -0.011447 -0.661791
				-0.234179 -0.069770 -0.969687
				0.150980 0.075067 -0.985682
				0.563703 0.349530 -0.748377
				</DataArray>
			</PointData>
			<Points>
				<DataArray type="Float32" NumberOfComponents="3" format="ascii">
				-0.004000 -0.425441 0.030000
				-0.004000 -0.431823 0.024600
				-0.004000 -0.422082 0.024060
				-0.004000 -0.410660 0.020010
				-0.004000 -0.392520 0.022440
				-0.004000 -0.382444 0.024330
				-0.004000 -0.322989 0.021090
				-0.004000 -0.255471 0.020010
				-0.004000 -0.205421 0.020010
				-0.004000 -0.154364 0.021630
				-0.004000 -0.120437 0.024330
				-0.004000 -0.083823 0.026490
				-0.004000 -0.070387 0.025950
				-0.004000 -0.065685 0.030000
				-0.000350 -0.424433 0.024976
				0.001713 -0.415363 0.022137
				0.001237 -0.404111 0.022792
				0.000126 -0.387819 0.024321
				-0.000826 -0.365481 0.025631
				0.000840 -0.301155 0.023337
				0.001555 -0.226584 0.022354
				0.001237 -0.176366 0.022792
				0.000443 -0.125979 0.023884
				0.000126 -0.101459 0.024321
				0.001158 -0.081305 0.022901
				-0.000429 -0.068708 0.025085
				0.002676 -0.417044 0.027831
				0.008839 -0.408645 0.025828
				0.003447 -0.397560 0.027580
				0.002162 -0.383116 0.027997
				0.000879 -0.348518 0.028414
				0.003190 -0.279321 0.027664
				0.004474 -0.197696 0.027247
				0.003447 -0.147310 0.027580
				0.002420 -0.097595 0.027914
				0.003960 -0.082480 0.027413
				0.009352 -0.078786 0.025661
				0.003704 -0.067028 0.027497
				0.002676 -0.417044 0.032169
				0.008839 -0.408645 0.034171
				0.003447 -0.397560 0.032420
				0.002162 -0.383116 0.032002
				0.000879 -0.348518 0.031586
				0.003190 -0.279321 0.032336
				0.004474 -0.197696 0.032753
				0.003447 -0.147310 0.032420
				0.002420 -0.097595 0.032086
				0.003960 -0.082480 0.032587
				0.009352 -0.078786 0.034339
				0.003704 -0.067028 0.032503
				0.001476 -0.419899 0.037536
				0.004094 -0.409821 0.041140
				-0.000270 -0.394706 0.035134
				-0.000509 -0.370015 0.034805
				-0.000985 -0.301996 0.034150
				-0.000905 -0.218354 0.034260
				0.000364 -0.160746 0.036007
				0.001555 -0.121949 0.037645
				0.003538 -0.091717 0.040376
				0.003856 -0.077777 0.040813
				0.003141 -0.072571 0.039830
				-0.000191 -0.064341 0.035242
				-0.004000 -0.422753 0.041610
				-0.004000 -0.410996 0.044040
				-0.004000 -0.391850 0.034860
				-0.004000 -0.356915 0.035400
				-0.004000 -0.255471 0.035130
				-0.004000 -0.157387 0.032970
				-0.004000 -0.123797 0.035940
				-0.004000 -0.096588 0.041070
				-0.004000 -0.085840 0.048900
				-0.004000 -0.073075 0.048360
				-0.004000 -0.066356 0.040260
				-0.004000 -0.061653 0.034860
				-0.008047 -0.425945 0.035570
				-0.010665 -0.415029 0.039175
				-0.009713 -0.402096 0.037863
				-0.010110 -0.380934 0.038410
				-0.008285 -0.328532 0.035898
				-0.006460 -0.269580 0.033386
				-0.006777 -0.219362 0.033822
				-0.008443 -0.156043 0.036116
				-0.010745 -0.117079 0.039284
				-0.011221 -0.094405 0.039939
				-0.011935 -0.069043 0.040922
				-0.007095 -0.059135 0.034260
				-0.006055 -0.429136 0.030668
				-0.012217 -0.419059 0.032670
				-0.017866 -0.412340 0.034505
				-0.018637 -0.404950 0.034756
				-0.012987 -0.401592 0.032921
				-0.009135 -0.381773 0.031669
				-0.007338 -0.314928 0.031084
				-0.007852 -0.215499 0.031252
				-0.007852 -0.148318 0.031252
				-0.009906 -0.115734 0.031919
				-0.019921 -0.071731 0.035173
				-0.009393 -0.056615 0.031752
				-0.006055 -0.429136 0.029332
				-0.012217 -0.419059 0.027330
				-0.017866 -0.412340 0.025495
				-0.018637 -0.404950 0.025244
				-0.012987 -0.401592 0.027079
				-0.009135 -0.381773 0.028331
				-0.007338 -0.314928 0.028916
				-0.007852 -0.215499 0.028748
				-0.007852 -0.148318 0.028748
				-0.009906 -0.115734 0.028081
				-0.019921 -0.071731 0.024827
				-0.009393 -0.056615 0.028248
				-0.006222 -0.430480 0.026942
				-0.008285 -0.420571 0.024102
				-0.011221 -0.411500 0.020061
				-0.010745 -0.398736 0.020716
				-0.008443 -0.392018 0.023884
				-0.008206 -0.352382 0.024211
				-0.007967 -0.285200 0.024539
				-0.008126 -0.210460 0.024321
				-0.007650 -0.151340 0.024976
				-0.007491 -0.118086 0.025195
				-0.009952 -0.077777 0.021809
				-0.006857 -0.063501 0.026068
				</DataArray>
			</Points>
			<Polys>
				<DataArray type="Int32" Name="connectivity" format="ascii">
					12 13 25
					0 14 26
					25 13 37
					0 26 38
					37 13 49
					0 38 50
					49 13 61
					0 50 62
					61 13 73
					0 62 74
					73 13 85
					0 74 86
					85 13 97
					0 86 98
					97 13 109
					0 98 110
					109 13 121
					0 110 1
					121 13 12
					0 1 14
					1 2 14
					2 3 15
					3 4 16
					4 5 17
					5 6 18
					6 7 19
					7 8 20
					8 9 21
					9 10 22
					10 11 23
					14 15 26
					15 16 27
					16 17 28
					17 18 29
					18 19 30
					19 20 31
					20 21 32
					21 22 33
					22 23 34
					23 24 35
					24 25 36
					26 27 38
					28 29 40
					30 31 42
					31 32 43
					32 33 44
					34 35 46
					36 37 48
					39 40 51
					40 41 52
					41 42 53
					42 43 54
					43 44 55
					44 45 56
					45 46 57
					46 47 58
					47 48 59
					51 52 63
					52 53 64
					53 54 65
					54 55 66
					55 56 67
					56 57 68
					57 58 69
					59 60 71
					71 72 83
					72 73 84
					75 76 87
					84 85 96
					87 88 99
					88 89 100
					89 90 101
					90 91 102
					91 92 103
					92 93 104
					93 94 105
					94 95 106
					95 96 107
					96 97 108
					98 99 110
					101 102 113
					102 103 114
					103 104 115
					104 105 116
					105 106 117
					107 108 119
					110 111 1
					112 113 3
					113 114 4
					114 115 5
					115 116 6
					116 117 7
					117 118 8
					118 119 9
					119 120 10
					1 14 14
					2 15 14
					3 16 15
					4 17 16
					5 18 17
					6 19 18
					7 20 19
					8 21 20
					9 22 21
					10 23 22
					11 24 23
					15 27 26
					16 28 27
					17 29 28
					18 30 29
					19 31 30
					20 32 31
					21 33 32
					22 34 33
					23 35 34
					24 36 35
					25 37 36
					27 39 38
					29 41 40
					31 43 42
					32 44 43
					33 45 44
					35 47 46
					37 49 48
					40 52 51
					41 53 52
					42 54 53
					43 55 54
					44 56 55
					45 57 56
					46 58 57
					47 59 58
					48 60 59
					52 64 63
					53 65 64
					54 66 65
					55 67 66
					56 68 67
					57 69 68
					58 70 69
					60 72 71
					72 84 83
					73 85 84
					76 88 87
					85 97 96
					88 100 99
					89 101 100
					90 102 101
					91 103 102
					92 104 103
					93 105 104
					94 106 105
					95 107 106
					96 108 107
					97 109 108
					99 111 110
					102 114 113
					103 115 114
					104 116 115
					105 117 116
					106 118 117
					108 120 119
					111 2 1
					113 4 3
					114 5 4
					115 6 5
					116 7 6
					117 8 7
					118 9 8
					119 10 9
					120 11 10
					11 12 25
					27 28 40
					29 30 42
					33 34 46
					35 36 48
					38 39 51
					48 49 61
					50 51 63
					58 59 71
					60 61 73
					62 63 75
					63 64 76
					64 65 77
					65 66 78
					66 67 79
					67 68 80
					68 69 81
					69 70 82
					70 71 83
					74 75 87
					76 77 89
					77 78 90
					78 79 91
					79 80 92
					80 81 93
					81 82 94
					82 83 95
					83 84 96
					86 87 99
					99 100 112
					100 101 113
					106 107 119
					108 109 121
					111 112 3
					120 121 12
					25 24 11
					40 39 27
					42 41 29
					46 45 33
					48 47 35
					51 50 38
					61 60 48
					63 62 50
					71 70 58
					73 72 60
					75 74 62
					76 75 63
					77 76 64
					78 77 65
					79 78 66
					80 79 67
					81 80 68
					82 81 69
					83 82 70
					87 86 74
					89 88 76
					90 89 77
					91 90 78
					92 91 79
					93 92 80
					94 93 81
					95 94 82
					96 95 83
					99 98 86
					112 111 99
					113 112 100
					119 118 106
					121 120 108
					3 2 111
					12 11 120
				</DataArray>
				<DataArray type="Int32" Name="offsets" format="ascii">
					3 6 9 12 15 18 21 24 27 30 33 36 39 42 45 48 51 54 57 60 63 66 69 72 75 78 81 84 87 90 93 96 99 102 105 108 111 114 117 120 123 126 129 132 135 138 141 144 147 150 153 156 159 162 165 168 171 174 177 180 183 186 189 192 195 198 201 204 207 210 213 216 219 222 225 228 231 234 237 240 243 246 249 252 255 258 261 264 267 270 273 276 279 282 285 288 291 294 297 300 303 306 309 312 315 318 321 324 327 330 333 336 339 342 345 348 351 354 357 360 363 366 369 372 375 378 381 384 387 390 393 396 399 402 405 408 411 414 417 420 423 426 429 432 435 438 441 444 447 450 453 456 459 462 465 468 471 474 477 480 483 486 489 492 495 498 501 504 507 510 513 516 519 522 525 528 531 534 537 540 543 546 549 552 555 558 561 564 567 570 573 576 579 582 585 588 591 594 597 600 603 606 609 612 615 618 621 624 627 630 633 636 639 642 645 648 651 654 657 660 663 666 669 672 675 678 681 684 687 690 693 696 699 702 705 708 711 714 717 720 723
				</DataArray>
			</Polys>
		</Piece>
	</PolyData>
</VTKFile>
